ITEM: TIMESTEP
52
ITEM: NUMBER OF ATOMS
352
ITEM: BOX BOUNDS pp pp pp
0 9.57482
0 20.5435
0 12.0455
ITEM: ATOMS id type q x y z 
1 1 2 9.57482 -4.92754e-08 12.0455 
2 1 2 2.39371 5.13587 -2.87152e-07 
3 1 2 2.39371 5.13587 3.01136 
4 1 2 9.57482 -4.85766e-08 3.01136 
5 1 2 4.77621 2.90989 1.50568 
6 1 2 2.40491 8.04576 1.50568 
7 1 2 2.3825 2.22597 4.51704 
8 1 2 9.58603 7.36184 4.51704 
9 2 4 2.12185 0.999023 1.50568 
10 2 4 0.271858 6.13489 1.50568 
11 2 4 4.51555 4.13684 4.51704 
12 2 4 2.66556 9.27271 4.51704 
13 3 0.84819 3.75361 0.935662 1.50568 
14 3 0.84819 3.42751 6.07153 1.50568 
15 3 0.84819 1.3599 4.20021 4.51704 
16 3 0.84819 1.0338 9.33607 4.51704 
17 3 0.84819 1.00112 4.64946 1.50568 
18 3 0.84819 1.39259 9.78533 1.50568 
19 3 0.84819 3.39482 0.486407 4.51704 
20 3 0.84819 3.78629 5.62227 4.51704 
21 3 0.84819 1.42886 1.69817 0.210681 
22 3 0.84819 0.964842 6.83403 0.210681 
23 3 0.84819 3.82257 3.4377 3.22204 
24 3 0.84819 3.35855 8.57357 3.22204 
25 3 0.84819 3.35855 8.57357 5.81204 
26 3 0.84819 3.82257 3.4377 5.81204 
27 3 0.84819 0.964842 6.83403 2.80068 
28 3 0.84819 1.42886 1.69817 2.80068 
29 4 -2.84819 3.65001 0.927946 1.50568 
30 4 -2.84819 3.5311 6.06381 1.50568 
31 4 -2.84819 1.25631 4.20792 4.51704 
32 4 -2.84819 1.1374 9.34379 4.51704 
33 4 -2.84819 0.96302 4.75211 1.50568 
34 4 -2.84819 1.43069 9.88797 1.50568 
35 4 -2.84819 3.35672 0.383758 4.51704 
36 4 -2.84819 3.82439 5.51962 4.51704 
37 4 -2.84819 1.48203 1.63657 0.304556 
38 4 -2.84819 0.911679 6.77244 0.304556 
39 4 -2.84819 3.87573 3.49929 3.31592 
40 4 -2.84819 3.30538 8.63516 3.31592 
41 4 -2.84819 3.30538 8.63516 5.71817 
42 4 -2.84819 3.87573 3.49929 5.71817 
43 4 -2.84819 0.911679 6.77244 2.70681 
44 4 -2.84819 1.48203 1.63657 2.70681 
45 1 2 4.78741 -4.90786e-08 12.0455 
46 1 2 7.18112 5.13587 -2.88205e-07 
47 1 2 7.18112 5.13587 3.01136 
48 1 2 4.78741 -4.84276e-08 3.01136 
49 1 2 -0.0112051 2.90989 1.50568 
50 1 2 7.19232 8.04576 1.50568 
51 1 2 7.16991 2.22597 4.51704 
52 1 2 4.79862 7.36184 4.51704 
53 2 4 6.90926 0.999023 1.50568 
54 2 4 5.05927 6.13489 1.50568 
55 2 4 9.30296 4.13684 4.51704 
56 2 4 7.45297 9.27271 4.51704 
57 3 0.84819 8.54102 0.935662 1.50568 
58 3 0.84819 8.21492 6.07153 1.50568 
59 3 0.84819 6.14732 4.20021 4.51704 
60 3 0.84819 5.82121 9.33607 4.51704 
61 3 0.84819 5.78853 4.64946 1.50568 
62 3 0.84819 6.18 9.78533 1.50568 
63 3 0.84819 8.18223 0.486407 4.51704 
64 3 0.84819 8.5737 5.62227 4.51704 
65 3 0.84819 6.21627 1.69817 0.210681 
66 3 0.84819 5.75225 6.83403 0.210681 
67 3 0.84819 8.60998 3.4377 3.22204 
68 3 0.84819 8.14596 8.57357 3.22204 
69 3 0.84819 8.14596 8.57357 5.81204 
70 3 0.84819 8.60998 3.4377 5.81204 
71 3 0.84819 5.75225 6.83403 2.80068 
72 3 0.84819 6.21627 1.69817 2.80068 
73 4 -2.84819 8.43742 0.927946 1.50568 
74 4 -2.84819 8.31852 6.06381 1.50568 
75 4 -2.84819 6.04372 4.20792 4.51704 
76 4 -2.84819 5.92481 9.34379 4.51704 
77 4 -2.84819 5.75043 4.75211 1.50568 
78 4 -2.84819 6.2181 9.88797 1.50568 
79 4 -2.84819 8.14414 0.383758 4.51704 
80 4 -2.84819 8.6118 5.51962 4.51704 
81 4 -2.84819 6.26944 1.63657 0.304555 
82 4 -2.84819 5.69909 6.77244 0.304556 
83 4 -2.84819 8.66314 3.49929 3.31592 
84 4 -2.84819 8.0928 8.63516 3.31592 
85 4 -2.84819 8.0928 8.63516 5.71817 
86 4 -2.84819 8.66314 3.49929 5.71817 
87 4 -2.84819 5.69909 6.77244 2.70681 
88 4 -2.84819 6.26944 1.63657 2.70681 
89 1 2 9.57482 10.2717 12.0455 
90 1 2 2.39371 15.4076 -2.82683e-07 
91 1 2 2.39371 15.4076 3.01136 
92 1 2 9.57482 10.2717 3.01136 
93 1 2 4.77621 13.1816 1.50568 
94 1 2 2.40491 18.3175 1.50568 
95 1 2 2.3825 12.4977 4.51704 
96 1 2 9.58603 17.6336 4.51704 
97 2 4 2.12185 11.2708 1.50568 
98 2 4 0.271858 16.4066 1.50568 
99 2 4 4.51555 14.4086 4.51704 
100 2 4 2.66556 19.5444 4.51704 
101 3 0.84819 3.75361 11.2074 1.50568 
102 3 0.84819 3.42751 16.3433 1.50568 
103 3 0.84819 1.3599 14.4719 4.51704 
104 3 0.84819 1.0338 19.6078 4.51704 
105 3 0.84819 1.00112 14.9212 1.50568 
106 3 0.84819 1.39259 20.0571 1.50568 
107 3 0.84819 3.39482 10.7581 4.51704 
108 3 0.84819 3.78629 15.894 4.51704 
109 3 0.84819 1.42886 11.9699 0.210681 
110 3 0.84819 0.964842 17.1058 0.210681 
111 3 0.84819 3.82257 13.7094 3.22204 
112 3 0.84819 3.35855 18.8453 3.22204 
113 3 0.84819 3.35855 18.8453 5.81204 
114 3 0.84819 3.82257 13.7094 5.81204 
115 3 0.84819 0.964842 17.1058 2.80068 
116 3 0.84819 1.42886 11.9699 2.80068 
117 4 -2.84819 3.65001 11.1997 1.50568 
118 4 -2.84819 3.5311 16.3355 1.50568 
119 4 -2.84819 1.25631 14.4797 4.51704 
120 4 -2.84819 1.1374 19.6155 4.51704 
121 4 -2.84819 0.96302 15.0238 1.50568 
122 4 -2.84819 1.43069 20.1597 1.50568 
123 4 -2.84819 3.35672 10.6555 4.51704 
124 4 -2.84819 3.82439 15.7914 4.51704 
125 4 -2.84819 1.48203 11.9083 0.304555 
126 4 -2.84819 0.911679 17.0442 0.304556 
127 4 -2.84819 3.87573 13.771 3.31592 
128 4 -2.84819 3.30538 18.9069 3.31592 
129 4 -2.84819 3.30538 18.9069 5.71817 
130 4 -2.84819 3.87573 13.771 5.71817 
131 4 -2.84819 0.911679 17.0442 2.70681 
132 4 -2.84819 1.48203 11.9083 2.70681 
133 1 2 4.78741 10.2717 12.0455 
134 1 2 7.18112 15.4076 -2.83737e-07 
135 1 2 7.18112 15.4076 3.01136 
136 1 2 4.78741 10.2717 3.01136 
137 1 2 -0.0112051 13.1816 1.50568 
138 1 2 7.19232 18.3175 1.50568 
139 1 2 7.16991 12.4977 4.51704 
140 1 2 4.79862 17.6336 4.51704 
141 2 4 6.90926 11.2708 1.50568 
142 2 4 5.05927 16.4066 1.50568 
143 2 4 9.30296 14.4086 4.51704 
144 2 4 7.45297 19.5444 4.51704 
145 3 0.84819 8.54102 11.2074 1.50568 
146 3 0.84819 8.21492 16.3433 1.50568 
147 3 0.84819 6.14732 14.4719 4.51704 
148 3 0.84819 5.82121 19.6078 4.51704 
149 3 0.84819 5.78853 14.9212 1.50568 
150 3 0.84819 6.18 20.0571 1.50568 
151 3 0.84819 8.18223 10.7581 4.51704 
152 3 0.84819 8.5737 15.894 4.51704 
153 3 0.84819 6.21627 11.9699 0.210681 
154 3 0.84819 5.75225 17.1058 0.210681 
155 3 0.84819 8.60998 13.7094 3.22204 
156 3 0.84819 8.14596 18.8453 3.22204 
157 3 0.84819 8.14596 18.8453 5.81204 
158 3 0.84819 8.60998 13.7094 5.81204 
159 3 0.84819 5.75225 17.1058 2.80068 
160 3 0.84819 6.21627 11.9699 2.80068 
161 4 -2.84819 8.43742 11.1997 1.50568 
162 4 -2.84819 8.31852 16.3355 1.50568 
163 4 -2.84819 6.04372 14.4797 4.51704 
164 4 -2.84819 5.92481 19.6155 4.51704 
165 4 -2.84819 5.75043 15.0238 1.50568 
166 4 -2.84819 6.2181 20.1597 1.50568 
167 4 -2.84819 8.14414 10.6555 4.51704 
168 4 -2.84819 8.6118 15.7914 4.51704 
169 4 -2.84819 6.26944 11.9083 0.304555 
170 4 -2.84819 5.69909 17.0442 0.304556 
171 4 -2.84819 8.66314 13.771 3.31592 
172 4 -2.84819 8.0928 18.9069 3.31592 
173 4 -2.84819 8.0928 18.9069 5.71817 
174 4 -2.84819 8.66314 13.771 5.71817 
175 4 -2.84819 5.69909 17.0442 2.70681 
176 4 -2.84819 6.26944 11.9083 2.70681 
177 1 2 9.57482 -3.85306e-08 6.02273 
178 1 2 2.39371 5.13587 6.02273 
179 1 2 2.39371 5.13587 9.03409 
180 1 2 9.57482 -2.83889e-08 9.03409 
181 1 2 4.77621 2.90989 7.52841 
182 1 2 2.40491 8.04576 7.52841 
183 1 2 2.3825 2.22597 10.5398 
184 1 2 9.58603 7.36184 10.5398 
185 2 4 2.12185 0.999023 7.52841 
186 2 4 0.271858 6.13489 7.52841 
187 2 4 4.51555 4.13684 10.5398 
188 2 4 2.66556 9.27271 10.5398 
189 3 0.84819 3.75361 0.935662 7.52841 
190 3 0.84819 3.42751 6.07153 7.52841 
191 3 0.84819 1.3599 4.20021 10.5398 
192 3 0.84819 1.0338 9.33607 10.5398 
193 3 0.84819 1.00112 4.64946 7.52841 
194 3 0.84819 1.39259 9.78533 7.52841 
195 3 0.84819 3.39482 0.486407 10.5398 
196 3 0.84819 3.78629 5.62227 10.5398 
197 3 0.84819 1.42886 1.69817 6.23341 
198 3 0.84819 0.964842 6.83403 6.23341 
199 3 0.84819 3.82257 3.4377 9.24477 
200 3 0.84819 3.35855 8.57357 9.24477 
201 3 0.84819 3.35855 8.57357 11.8348 
202 3 0.84819 3.82257 3.4377 11.8348 
203 3 0.84819 0.964842 6.83403 8.82341 
204 3 0.84819 1.42886 1.69817 8.82341 
205 4 -2.84819 3.65001 0.927946 7.52841 
206 4 -2.84819 3.5311 6.06381 7.52841 
207 4 -2.84819 1.25631 4.20792 10.5398 
208 4 -2.84819 1.1374 9.34379 10.5398 
209 4 -2.84819 0.96302 4.75211 7.52841 
210 4 -2.84819 1.43069 9.88797 7.52841 
211 4 -2.84819 3.35672 0.383758 10.5398 
212 4 -2.84819 3.82439 5.51962 10.5398 
213 4 -2.84819 1.48203 1.63657 6.32728 
214 4 -2.84819 0.911679 6.77244 6.32728 
215 4 -2.84819 3.87573 3.49929 9.33864 
216 4 -2.84819 3.30538 8.63516 9.33864 
217 4 -2.84819 3.30538 8.63516 11.7409 
218 4 -2.84819 3.87573 3.49929 11.7409 
219 4 -2.84819 0.911679 6.77244 8.72953 
220 4 -2.84819 1.48203 1.63657 8.72953 
221 1 2 4.78741 -3.85268e-08 6.02273 
222 1 2 7.18112 5.13587 6.02273 
223 1 2 7.18112 5.13587 9.03409 
224 1 2 4.78741 -2.83374e-08 9.03409 
225 1 2 -0.0112051 2.90989 7.52841 
226 1 2 7.19232 8.04576 7.52841 
227 1 2 7.16991 2.22597 10.5398 
228 1 2 4.79862 7.36184 10.5398 
229 2 4 6.90926 0.999023 7.52841 
230 2 4 5.05927 6.13489 7.52841 
231 2 4 9.30296 4.13684 10.5398 
232 2 4 7.45297 9.27271 10.5398 
233 3 0.84819 8.54102 0.935662 7.52841 
234 3 0.84819 8.21492 6.07153 7.52841 
235 3 0.84819 6.14732 4.20021 10.5398 
236 3 0.84819 5.82121 9.33607 10.5398 
237 3 0.84819 5.78853 4.64946 7.52841 
238 3 0.84819 6.18 9.78533 7.52841 
239 3 0.84819 8.18223 0.486407 10.5398 
240 3 0.84819 8.5737 5.62227 10.5398 
241 3 0.84819 6.21627 1.69817 6.23341 
242 3 0.84819 5.75225 6.83403 6.23341 
243 3 0.84819 8.60998 3.4377 9.24477 
244 3 0.84819 8.14596 8.57357 9.24477 
245 3 0.84819 8.14596 8.57357 11.8348 
246 3 0.84819 8.60998 3.4377 11.8348 
247 3 0.84819 5.75225 6.83403 8.82341 
248 3 0.84819 6.21627 1.69817 8.82341 
249 4 -2.84819 8.43742 0.927946 7.52841 
250 4 -2.84819 8.31852 6.06381 7.52841 
251 4 -2.84819 6.04372 4.20792 10.5398 
252 4 -2.84819 5.92481 9.34379 10.5398 
253 4 -2.84819 5.75043 4.75211 7.52841 
254 4 -2.84819 6.2181 9.88797 7.52841 
255 4 -2.84819 8.14414 0.383758 10.5398 
256 4 -2.84819 8.6118 5.51962 10.5398 
257 4 -2.84819 6.26944 1.63657 6.32728 
258 4 -2.84819 5.69909 6.77244 6.32728 
259 4 -2.84819 8.66314 3.49929 9.33864 
260 4 -2.84819 8.0928 8.63516 9.33864 
261 4 -2.84819 8.0928 8.63516 11.7409 
262 4 -2.84819 8.66314 3.49929 11.7409 
263 4 -2.84819 5.69909 6.77244 8.72953 
264 4 -2.84819 6.26944 1.63657 8.72953 
265 1 2 9.57482 10.2717 6.02273 
266 1 2 2.39371 15.4076 6.02273 
267 1 2 2.39371 15.4076 9.03409 
268 1 2 9.57482 10.2717 9.03409 
269 1 2 4.77621 13.1816 7.52841 
270 1 2 2.40491 18.3175 7.52841 
271 1 2 2.3825 12.4977 10.5398 
272 1 2 9.58603 17.6336 10.5398 
273 2 4 2.12185 11.2708 7.52841 
274 2 4 0.271858 16.4066 7.52841 
275 2 4 4.51555 14.4086 10.5398 
276 2 4 2.66556 19.5444 10.5398 
277 3 0.84819 3.75361 11.2074 7.52841 
278 3 0.84819 3.42751 16.3433 7.52841 
279 3 0.84819 1.3599 14.4719 10.5398 
280 3 0.84819 1.0338 19.6078 10.5398 
281 3 0.84819 1.00112 14.9212 7.52841 
282 3 0.84819 1.39259 20.0571 7.52841 
283 3 0.84819 3.39482 10.7581 10.5398 
284 3 0.84819 3.78629 15.894 10.5398 
285 3 0.84819 1.42886 11.9699 6.23341 
286 3 0.84819 0.964842 17.1058 6.23341 
287 3 0.84819 3.82257 13.7094 9.24477 
288 3 0.84819 3.35855 18.8453 9.24477 
289 3 0.84819 3.35855 18.8453 11.8348 
290 3 0.84819 3.82257 13.7094 11.8348 
291 3 0.84819 0.964842 17.1058 8.82341 
292 3 0.84819 1.42886 11.9699 8.82341 
293 4 -2.84819 3.65001 11.1997 7.52841 
294 4 -2.84819 3.5311 16.3355 7.52841 
295 4 -2.84819 1.25631 14.4797 10.5398 
296 4 -2.84819 1.1374 19.6155 10.5398 
297 4 -2.84819 0.96302 15.0238 7.52841 
298 4 -2.84819 1.43069 20.1597 7.52841 
299 4 -2.84819 3.35672 10.6555 10.5398 
300 4 -2.84819 3.82439 15.7914 10.5398 
301 4 -2.84819 1.48203 11.9083 6.32728 
302 4 -2.84819 0.911679 17.0442 6.32728 
303 4 -2.84819 3.87573 13.771 9.33864 
304 4 -2.84819 3.30538 18.9069 9.33864 
305 4 -2.84819 3.30538 18.9069 11.7409 
306 4 -2.84819 3.87573 13.771 11.7409 
307 4 -2.84819 0.911679 17.0442 8.72953 
308 4 -2.84819 1.48203 11.9083 8.72953 
309 1 2 4.78741 10.2717 6.02273 
310 1 2 7.18112 15.4076 6.02273 
311 1 2 7.18112 15.4076 9.03409 
312 1 2 4.78741 10.2717 9.03409 
313 1 2 -0.0112051 13.1816 7.52841 
314 1 2 7.19232 18.3175 7.52841 
315 1 2 7.16991 12.4977 10.5398 
316 1 2 4.79862 17.6336 10.5398 
317 2 4 6.90926 11.2708 7.52841 
318 2 4 5.05927 16.4066 7.52841 
319 2 4 9.30296 14.4086 10.5398 
320 2 4 7.45297 19.5444 10.5398 
321 3 0.84819 8.54102 11.2074 7.52841 
322 3 0.84819 8.21492 16.3433 7.52841 
323 3 0.84819 6.14732 14.4719 10.5398 
324 3 0.84819 5.82121 19.6078 10.5398 
325 3 0.84819 5.78853 14.9212 7.52841 
326 3 0.84819 6.18 20.0571 7.52841 
327 3 0.84819 8.18223 10.7581 10.5398 
328 3 0.84819 8.5737 15.894 10.5398 
329 3 0.84819 6.21627 11.9699 6.23341 
330 3 0.84819 5.75225 17.1058 6.23341 
331 3 0.84819 8.60998 13.7094 9.24477 
332 3 0.84819 8.14596 18.8453 9.24477 
333 3 0.84819 8.14596 18.8453 11.8348 
334 3 0.84819 8.60998 13.7094 11.8348 
335 3 0.84819 5.75225 17.1058 8.82341 
336 3 0.84819 6.21627 11.9699 8.82341 
337 4 -2.84819 8.43742 11.1997 7.52841 
338 4 -2.84819 8.31852 16.3355 7.52841 
339 4 -2.84819 6.04372 14.4797 10.5398 
340 4 -2.84819 5.92481 19.6155 10.5398 
341 4 -2.84819 5.75043 15.0238 7.52841 
342 4 -2.84819 6.2181 20.1597 7.52841 
343 4 -2.84819 8.14414 10.6555 10.5398 
344 4 -2.84819 8.6118 15.7914 10.5398 
345 4 -2.84819 6.26944 11.9083 6.32728 
346 4 -2.84819 5.69909 17.0442 6.32728 
347 4 -2.84819 8.66314 13.771 9.33864 
348 4 -2.84819 8.0928 18.9069 9.33864 
349 4 -2.84819 8.0928 18.9069 11.7409 
350 4 -2.84819 8.66314 13.771 11.7409 
351 4 -2.84819 5.69909 17.0442 8.72953 
352 4 -2.84819 6.26944 11.9083 8.72953 
