ITEM: TIMESTEP
0
ITEM: NUMBER OF ATOMS
352
ITEM: BOX BOUNDS pp pp pp
0 9.57482
0 20.5435
0 12.0455
ITEM: ATOMS id type q x y z 
1 1 2 0 0 0 
2 1 2 2.39371 5.13587 0 
3 1 2 2.39371 5.13587 3.01136 
4 1 2 0 0 3.01136 
5 1 2 4.74256 2.84986 1.50568 
6 1 2 2.43855 7.98573 1.50568 
7 1 2 2.34886 2.286 4.51704 
8 1 2 0.044848 7.42187 4.51704 
9 2 4 2.04253 0.967084 1.50568 
10 2 4 0.351176 6.10295 1.50568 
11 2 4 4.43623 4.16878 4.51704 
12 2 4 2.74488 9.30465 4.51704 
13 3 0.84819 3.67238 0.942596 1.50568 
14 3 0.84819 3.50874 6.07846 1.50568 
15 3 0.84819 1.27867 4.19327 4.51704 
16 3 0.84819 1.11504 9.32914 4.51704 
17 3 0.84819 1.06341 4.58955 1.50568 
18 3 0.84819 1.3303 9.72542 1.50568 
19 3 0.84819 3.45711 0.546312 4.51704 
20 3 0.84819 3.724 5.68218 4.51704 
21 3 0.84819 1.32321 1.67852 0.195841 
22 3 0.84819 1.0705 6.81439 0.195841 
23 3 0.84819 3.71691 3.45734 3.2072 
24 3 0.84819 3.4642 8.59321 3.2072 
25 3 0.84819 3.4642 8.59321 5.82688 
26 3 0.84819 3.71691 3.45734 5.82688 
27 3 0.84819 1.0705 6.81439 2.81552 
28 3 0.84819 1.32321 1.67852 2.81552 
29 4 -2.84819 3.67238 0.942596 1.50568 
30 4 -2.84819 3.50874 6.07846 1.50568 
31 4 -2.84819 1.27867 4.19327 4.51704 
32 4 -2.84819 1.11504 9.32914 4.51704 
33 4 -2.84819 1.06341 4.58955 1.50568 
34 4 -2.84819 1.3303 9.72542 1.50568 
35 4 -2.84819 3.45711 0.546312 4.51704 
36 4 -2.84819 3.724 5.68218 4.51704 
37 4 -2.84819 1.32321 1.67852 0.195841 
38 4 -2.84819 1.0705 6.81439 0.195841 
39 4 -2.84819 3.71691 3.45734 3.2072 
40 4 -2.84819 3.4642 8.59321 3.2072 
41 4 -2.84819 3.4642 8.59321 5.82688 
42 4 -2.84819 3.71691 3.45734 5.82688 
43 4 -2.84819 1.0705 6.81439 2.81552 
44 4 -2.84819 1.32321 1.67852 2.81552 
45 1 2 4.78741 0 0 
46 1 2 7.18112 5.13587 0 
47 1 2 7.18112 5.13587 3.01136 
48 1 2 4.78741 0 3.01136 
49 1 2 9.52997 2.84986 1.50568 
50 1 2 7.22596 7.98573 1.50568 
51 1 2 7.13627 2.286 4.51704 
52 1 2 4.83226 7.42187 4.51704 
53 2 4 6.82994 0.967084 1.50568 
54 2 4 5.13859 6.10295 1.50568 
55 2 4 9.22365 4.16878 4.51704 
56 2 4 7.53229 9.30465 4.51704 
57 3 0.84819 8.45979 0.942596 1.50568 
58 3 0.84819 8.29615 6.07846 1.50568 
59 3 0.84819 6.06608 4.19327 4.51704 
60 3 0.84819 5.90245 9.32914 4.51704 
61 3 0.84819 5.85082 4.58955 1.50568 
62 3 0.84819 6.11771 9.72542 1.50568 
63 3 0.84819 8.24452 0.546312 4.51704 
64 3 0.84819 8.51141 5.68218 4.51704 
65 3 0.84819 6.11062 1.67852 0.195841 
66 3 0.84819 5.85791 6.81439 0.195841 
67 3 0.84819 8.50432 3.45734 3.2072 
68 3 0.84819 8.25161 8.59321 3.2072 
69 3 0.84819 8.25161 8.59321 5.82688 
70 3 0.84819 8.50432 3.45734 5.82688 
71 3 0.84819 5.85791 6.81439 2.81552 
72 3 0.84819 6.11062 1.67852 2.81552 
73 4 -2.84819 8.45979 0.942596 1.50568 
74 4 -2.84819 8.29615 6.07846 1.50568 
75 4 -2.84819 6.06608 4.19327 4.51704 
76 4 -2.84819 5.90245 9.32914 4.51704 
77 4 -2.84819 5.85082 4.58955 1.50568 
78 4 -2.84819 6.11771 9.72542 1.50568 
79 4 -2.84819 8.24452 0.546312 4.51704 
80 4 -2.84819 8.51141 5.68218 4.51704 
81 4 -2.84819 6.11062 1.67852 0.195841 
82 4 -2.84819 5.85791 6.81439 0.195841 
83 4 -2.84819 8.50432 3.45734 3.2072 
84 4 -2.84819 8.25161 8.59321 3.2072 
85 4 -2.84819 8.25161 8.59321 5.82688 
86 4 -2.84819 8.50432 3.45734 5.82688 
87 4 -2.84819 5.85791 6.81439 2.81552 
88 4 -2.84819 6.11062 1.67852 2.81552 
89 1 2 0 10.2717 0 
90 1 2 2.39371 15.4076 0 
91 1 2 2.39371 15.4076 3.01136 
92 1 2 0 10.2717 3.01136 
93 1 2 4.74256 13.1216 1.50568 
94 1 2 2.43855 18.2575 1.50568 
95 1 2 2.34886 12.5577 4.51704 
96 1 2 0.044848 17.6936 4.51704 
97 2 4 2.04253 11.2388 1.50568 
98 2 4 0.351176 16.3747 1.50568 
99 2 4 4.43623 14.4405 4.51704 
100 2 4 2.74488 19.5764 4.51704 
101 3 0.84819 3.67238 11.2143 1.50568 
102 3 0.84819 3.50874 16.3502 1.50568 
103 3 0.84819 1.27867 14.465 4.51704 
104 3 0.84819 1.11504 19.6009 4.51704 
105 3 0.84819 1.06341 14.8613 1.50568 
106 3 0.84819 1.3303 19.9972 1.50568 
107 3 0.84819 3.45711 10.818 4.51704 
108 3 0.84819 3.724 15.9539 4.51704 
109 3 0.84819 1.32321 11.9503 0.195841 
110 3 0.84819 1.0705 17.0861 0.195841 
111 3 0.84819 3.71691 13.7291 3.2072 
112 3 0.84819 3.4642 18.8649 3.2072 
113 3 0.84819 3.4642 18.8649 5.82688 
114 3 0.84819 3.71691 13.7291 5.82688 
115 3 0.84819 1.0705 17.0861 2.81552 
116 3 0.84819 1.32321 11.9503 2.81552 
117 4 -2.84819 3.67238 11.2143 1.50568 
118 4 -2.84819 3.50874 16.3502 1.50568 
119 4 -2.84819 1.27867 14.465 4.51704 
120 4 -2.84819 1.11504 19.6009 4.51704 
121 4 -2.84819 1.06341 14.8613 1.50568 
122 4 -2.84819 1.3303 19.9972 1.50568 
123 4 -2.84819 3.45711 10.818 4.51704 
124 4 -2.84819 3.724 15.9539 4.51704 
125 4 -2.84819 1.32321 11.9503 0.195841 
126 4 -2.84819 1.0705 17.0861 0.195841 
127 4 -2.84819 3.71691 13.7291 3.2072 
128 4 -2.84819 3.4642 18.8649 3.2072 
129 4 -2.84819 3.4642 18.8649 5.82688 
130 4 -2.84819 3.71691 13.7291 5.82688 
131 4 -2.84819 1.0705 17.0861 2.81552 
132 4 -2.84819 1.32321 11.9503 2.81552 
133 1 2 4.78741 10.2717 0 
134 1 2 7.18112 15.4076 0 
135 1 2 7.18112 15.4076 3.01136 
136 1 2 4.78741 10.2717 3.01136 
137 1 2 9.52997 13.1216 1.50568 
138 1 2 7.22596 18.2575 1.50568 
139 1 2 7.13627 12.5577 4.51704 
140 1 2 4.83226 17.6936 4.51704 
141 2 4 6.82994 11.2388 1.50568 
142 2 4 5.13859 16.3747 1.50568 
143 2 4 9.22365 14.4405 4.51704 
144 2 4 7.53229 19.5764 4.51704 
145 3 0.84819 8.45979 11.2143 1.50568 
146 3 0.84819 8.29615 16.3502 1.50568 
147 3 0.84819 6.06608 14.465 4.51704 
148 3 0.84819 5.90245 19.6009 4.51704 
149 3 0.84819 5.85082 14.8613 1.50568 
150 3 0.84819 6.11771 19.9972 1.50568 
151 3 0.84819 8.24452 10.818 4.51704 
152 3 0.84819 8.51141 15.9539 4.51704 
153 3 0.84819 6.11062 11.9503 0.195841 
154 3 0.84819 5.85791 17.0861 0.195841 
155 3 0.84819 8.50432 13.7291 3.2072 
156 3 0.84819 8.25161 18.8649 3.2072 
157 3 0.84819 8.25161 18.8649 5.82688 
158 3 0.84819 8.50432 13.7291 5.82688 
159 3 0.84819 5.85791 17.0861 2.81552 
160 3 0.84819 6.11062 11.9503 2.81552 
161 4 -2.84819 8.45979 11.2143 1.50568 
162 4 -2.84819 8.29615 16.3502 1.50568 
163 4 -2.84819 6.06608 14.465 4.51704 
164 4 -2.84819 5.90245 19.6009 4.51704 
165 4 -2.84819 5.85082 14.8613 1.50568 
166 4 -2.84819 6.11771 19.9972 1.50568 
167 4 -2.84819 8.24452 10.818 4.51704 
168 4 -2.84819 8.51141 15.9539 4.51704 
169 4 -2.84819 6.11062 11.9503 0.195841 
170 4 -2.84819 5.85791 17.0861 0.195841 
171 4 -2.84819 8.50432 13.7291 3.2072 
172 4 -2.84819 8.25161 18.8649 3.2072 
173 4 -2.84819 8.25161 18.8649 5.82688 
174 4 -2.84819 8.50432 13.7291 5.82688 
175 4 -2.84819 5.85791 17.0861 2.81552 
176 4 -2.84819 6.11062 11.9503 2.81552 
177 1 2 0 0 6.02273 
178 1 2 2.39371 5.13587 6.02273 
179 1 2 2.39371 5.13587 9.03409 
180 1 2 0 0 9.03409 
181 1 2 4.74256 2.84986 7.52841 
182 1 2 2.43855 7.98573 7.52841 
183 1 2 2.34886 2.286 10.5398 
184 1 2 0.044848 7.42187 10.5398 
185 2 4 2.04253 0.967084 7.52841 
186 2 4 0.351176 6.10295 7.52841 
187 2 4 4.43623 4.16878 10.5398 
188 2 4 2.74488 9.30465 10.5398 
189 3 0.84819 3.67238 0.942596 7.52841 
190 3 0.84819 3.50874 6.07846 7.52841 
191 3 0.84819 1.27867 4.19327 10.5398 
192 3 0.84819 1.11504 9.32914 10.5398 
193 3 0.84819 1.06341 4.58955 7.52841 
194 3 0.84819 1.3303 9.72542 7.52841 
195 3 0.84819 3.45711 0.546312 10.5398 
196 3 0.84819 3.724 5.68218 10.5398 
197 3 0.84819 1.32321 1.67852 6.21857 
198 3 0.84819 1.0705 6.81439 6.21857 
199 3 0.84819 3.71691 3.45734 9.22993 
200 3 0.84819 3.4642 8.59321 9.22993 
201 3 0.84819 3.4642 8.59321 11.8496 
202 3 0.84819 3.71691 3.45734 11.8496 
203 3 0.84819 1.0705 6.81439 8.83825 
204 3 0.84819 1.32321 1.67852 8.83825 
205 4 -2.84819 3.67238 0.942596 7.52841 
206 4 -2.84819 3.50874 6.07846 7.52841 
207 4 -2.84819 1.27867 4.19327 10.5398 
208 4 -2.84819 1.11504 9.32914 10.5398 
209 4 -2.84819 1.06341 4.58955 7.52841 
210 4 -2.84819 1.3303 9.72542 7.52841 
211 4 -2.84819 3.45711 0.546312 10.5398 
212 4 -2.84819 3.724 5.68218 10.5398 
213 4 -2.84819 1.32321 1.67852 6.21857 
214 4 -2.84819 1.0705 6.81439 6.21857 
215 4 -2.84819 3.71691 3.45734 9.22993 
216 4 -2.84819 3.4642 8.59321 9.22993 
217 4 -2.84819 3.4642 8.59321 11.8496 
218 4 -2.84819 3.71691 3.45734 11.8496 
219 4 -2.84819 1.0705 6.81439 8.83825 
220 4 -2.84819 1.32321 1.67852 8.83825 
221 1 2 4.78741 0 6.02273 
222 1 2 7.18112 5.13587 6.02273 
223 1 2 7.18112 5.13587 9.03409 
224 1 2 4.78741 0 9.03409 
225 1 2 9.52997 2.84986 7.52841 
226 1 2 7.22596 7.98573 7.52841 
227 1 2 7.13627 2.286 10.5398 
228 1 2 4.83226 7.42187 10.5398 
229 2 4 6.82994 0.967084 7.52841 
230 2 4 5.13859 6.10295 7.52841 
231 2 4 9.22365 4.16878 10.5398 
232 2 4 7.53229 9.30465 10.5398 
233 3 0.84819 8.45979 0.942596 7.52841 
234 3 0.84819 8.29615 6.07846 7.52841 
235 3 0.84819 6.06608 4.19327 10.5398 
236 3 0.84819 5.90245 9.32914 10.5398 
237 3 0.84819 5.85082 4.58955 7.52841 
238 3 0.84819 6.11771 9.72542 7.52841 
239 3 0.84819 8.24452 0.546312 10.5398 
240 3 0.84819 8.51141 5.68218 10.5398 
241 3 0.84819 6.11062 1.67852 6.21857 
242 3 0.84819 5.85791 6.81439 6.21857 
243 3 0.84819 8.50432 3.45734 9.22993 
244 3 0.84819 8.25161 8.59321 9.22993 
245 3 0.84819 8.25161 8.59321 11.8496 
246 3 0.84819 8.50432 3.45734 11.8496 
247 3 0.84819 5.85791 6.81439 8.83825 
248 3 0.84819 6.11062 1.67852 8.83825 
249 4 -2.84819 8.45979 0.942596 7.52841 
250 4 -2.84819 8.29615 6.07846 7.52841 
251 4 -2.84819 6.06608 4.19327 10.5398 
252 4 -2.84819 5.90245 9.32914 10.5398 
253 4 -2.84819 5.85082 4.58955 7.52841 
254 4 -2.84819 6.11771 9.72542 7.52841 
255 4 -2.84819 8.24452 0.546312 10.5398 
256 4 -2.84819 8.51141 5.68218 10.5398 
257 4 -2.84819 6.11062 1.67852 6.21857 
258 4 -2.84819 5.85791 6.81439 6.21857 
259 4 -2.84819 8.50432 3.45734 9.22993 
260 4 -2.84819 8.25161 8.59321 9.22993 
261 4 -2.84819 8.25161 8.59321 11.8496 
262 4 -2.84819 8.50432 3.45734 11.8496 
263 4 -2.84819 5.85791 6.81439 8.83825 
264 4 -2.84819 6.11062 1.67852 8.83825 
265 1 2 0 10.2717 6.02273 
266 1 2 2.39371 15.4076 6.02273 
267 1 2 2.39371 15.4076 9.03409 
268 1 2 0 10.2717 9.03409 
269 1 2 4.74256 13.1216 7.52841 
270 1 2 2.43855 18.2575 7.52841 
271 1 2 2.34886 12.5577 10.5398 
272 1 2 0.044848 17.6936 10.5398 
273 2 4 2.04253 11.2388 7.52841 
274 2 4 0.351176 16.3747 7.52841 
275 2 4 4.43623 14.4405 10.5398 
276 2 4 2.74488 19.5764 10.5398 
277 3 0.84819 3.67238 11.2143 7.52841 
278 3 0.84819 3.50874 16.3502 7.52841 
279 3 0.84819 1.27867 14.465 10.5398 
280 3 0.84819 1.11504 19.6009 10.5398 
281 3 0.84819 1.06341 14.8613 7.52841 
282 3 0.84819 1.3303 19.9972 7.52841 
283 3 0.84819 3.45711 10.818 10.5398 
284 3 0.84819 3.724 15.9539 10.5398 
285 3 0.84819 1.32321 11.9503 6.21857 
286 3 0.84819 1.0705 17.0861 6.21857 
287 3 0.84819 3.71691 13.7291 9.22993 
288 3 0.84819 3.4642 18.8649 9.22993 
289 3 0.84819 3.4642 18.8649 11.8496 
290 3 0.84819 3.71691 13.7291 11.8496 
291 3 0.84819 1.0705 17.0861 8.83825 
292 3 0.84819 1.32321 11.9503 8.83825 
293 4 -2.84819 3.67238 11.2143 7.52841 
294 4 -2.84819 3.50874 16.3502 7.52841 
295 4 -2.84819 1.27867 14.465 10.5398 
296 4 -2.84819 1.11504 19.6009 10.5398 
297 4 -2.84819 1.06341 14.8613 7.52841 
298 4 -2.84819 1.3303 19.9972 7.52841 
299 4 -2.84819 3.45711 10.818 10.5398 
300 4 -2.84819 3.724 15.9539 10.5398 
301 4 -2.84819 1.32321 11.9503 6.21857 
302 4 -2.84819 1.0705 17.0861 6.21857 
303 4 -2.84819 3.71691 13.7291 9.22993 
304 4 -2.84819 3.4642 18.8649 9.22993 
305 4 -2.84819 3.4642 18.8649 11.8496 
306 4 -2.84819 3.71691 13.7291 11.8496 
307 4 -2.84819 1.0705 17.0861 8.83825 
308 4 -2.84819 1.32321 11.9503 8.83825 
309 1 2 4.78741 10.2717 6.02273 
310 1 2 7.18112 15.4076 6.02273 
311 1 2 7.18112 15.4076 9.03409 
312 1 2 4.78741 10.2717 9.03409 
313 1 2 9.52997 13.1216 7.52841 
314 1 2 7.22596 18.2575 7.52841 
315 1 2 7.13627 12.5577 10.5398 
316 1 2 4.83226 17.6936 10.5398 
317 2 4 6.82994 11.2388 7.52841 
318 2 4 5.13859 16.3747 7.52841 
319 2 4 9.22365 14.4405 10.5398 
320 2 4 7.53229 19.5764 10.5398 
321 3 0.84819 8.45979 11.2143 7.52841 
322 3 0.84819 8.29615 16.3502 7.52841 
323 3 0.84819 6.06608 14.465 10.5398 
324 3 0.84819 5.90245 19.6009 10.5398 
325 3 0.84819 5.85082 14.8613 7.52841 
326 3 0.84819 6.11771 19.9972 7.52841 
327 3 0.84819 8.24452 10.818 10.5398 
328 3 0.84819 8.51141 15.9539 10.5398 
329 3 0.84819 6.11062 11.9503 6.21857 
330 3 0.84819 5.85791 17.0861 6.21857 
331 3 0.84819 8.50432 13.7291 9.22993 
332 3 0.84819 8.25161 18.8649 9.22993 
333 3 0.84819 8.25161 18.8649 11.8496 
334 3 0.84819 8.50432 13.7291 11.8496 
335 3 0.84819 5.85791 17.0861 8.83825 
336 3 0.84819 6.11062 11.9503 8.83825 
337 4 -2.84819 8.45979 11.2143 7.52841 
338 4 -2.84819 8.29615 16.3502 7.52841 
339 4 -2.84819 6.06608 14.465 10.5398 
340 4 -2.84819 5.90245 19.6009 10.5398 
341 4 -2.84819 5.85082 14.8613 7.52841 
342 4 -2.84819 6.11771 19.9972 7.52841 
343 4 -2.84819 8.24452 10.818 10.5398 
344 4 -2.84819 8.51141 15.9539 10.5398 
345 4 -2.84819 6.11062 11.9503 6.21857 
346 4 -2.84819 5.85791 17.0861 6.21857 
347 4 -2.84819 8.50432 13.7291 9.22993 
348 4 -2.84819 8.25161 18.8649 9.22993 
349 4 -2.84819 8.25161 18.8649 11.8496 
350 4 -2.84819 8.50432 13.7291 11.8496 
351 4 -2.84819 5.85791 17.0861 8.83825 
352 4 -2.84819 6.11062 11.9503 8.83825 
