ITEM: TIMESTEP
0
ITEM: NUMBER OF ATOMS
352
ITEM: BOX BOUNDS pp pp pp
0 9.57482
0 20.5435
0 12.0455
ITEM: ATOMS id type q x y z c_epa c_spa[1] c_spa[2] c_spa[3] c_spa[4] c_spa[5] c_spa[6] 
1 1 2 0 0 0 -19.9573 -8.14755e+06 9.52069e+06 -2.878e+06 -3.52341e+06 -4.98015e+06 -5.62977e+06 
2 1 2 2.39371 5.13587 0 -19.9573 -8.14759e+06 9.52072e+06 -2.87804e+06 3.52341e+06 4.98017e+06 -5.62977e+06 
3 1 2 2.39371 5.13587 3.01136 -19.9573 -8.14759e+06 9.52072e+06 -2.87804e+06 3.52341e+06 -4.98017e+06 5.62977e+06 
4 1 2 0 0 3.01136 -19.9573 -8.14755e+06 9.52069e+06 -2.878e+06 -3.52341e+06 4.98015e+06 5.62977e+06 
5 1 2 4.74256 2.84986 1.50568 -21.9359 3.96494e+06 -5.40087e+06 5.70943e+06 2.67623e+06 -0.217956 -0.456232 
6 1 2 2.43855 7.98573 1.50568 -21.9359 3.96494e+06 -5.40086e+06 5.70945e+06 -2.67624e+06 0.217955 -0.456232 
7 1 2 2.34886 2.286 4.51704 -21.9359 3.96494e+06 -5.40086e+06 5.70944e+06 -2.67624e+06 -0.217956 0.456233 
8 1 2 0.044848 7.42187 4.51704 -21.9359 3.96495e+06 -5.40087e+06 5.70944e+06 2.67624e+06 0.217956 0.456232 
9 2 4 2.04253 0.967084 1.50568 -78.7097 8.36165e+06 1.66065e+07 9.16851e+06 959330 -8.15556 3.85792 
10 2 4 0.351176 6.10295 1.50568 -78.7096 8.36165e+06 1.66065e+07 9.16847e+06 -959294 8.15555 3.85792 
11 2 4 4.43623 4.16878 4.51704 -78.7096 8.36161e+06 1.66065e+07 9.16846e+06 -959310 -8.15554 -3.85792 
12 2 4 2.74488 9.30465 4.51704 -78.7097 8.36165e+06 1.66065e+07 9.16852e+06 959329 8.15556 -3.85792 
13 3 0.84819 3.67238 0.942596 1.50568 2.38769 -1.7624e+07 -87260.9 -944482 363532 1.84901 -1.68578 
14 3 0.84819 3.50874 6.07846 1.50568 2.38769 -1.7624e+07 -87257.3 -944494 -363534 -1.84901 -1.68577 
15 3 0.84819 1.27867 4.19327 4.51704 2.3877 -1.7624e+07 -87252.9 -944508 -363533 1.84902 1.68578 
16 3 0.84819 1.11504 9.32914 4.51704 2.38769 -1.7624e+07 -87261.3 -944480 363532 -1.84901 1.68578 
17 3 0.84819 1.06341 4.58955 1.50568 2.30582 -4.59195e+06 -1.12979e+07 -2.63558e+06 2.70648e+06 2.51686 1.11781 
18 3 0.84819 1.3303 9.72542 1.50568 2.3058 -4.59195e+06 -1.12979e+07 -2.63556e+06 -2.70648e+06 -2.51686 1.11781 
19 3 0.84819 3.45711 0.546312 4.51704 2.3058 -4.59195e+06 -1.12979e+07 -2.63556e+06 -2.70648e+06 2.51686 -1.11781 
20 3 0.84819 3.724 5.68218 4.51704 2.30581 -4.59195e+06 -1.12979e+07 -2.63557e+06 2.70648e+06 -2.51685 -1.11781 
21 3 0.84819 1.32321 1.67852 0.195841 1.80023 -2.83541e+06 -4.32888e+06 -1.05469e+07 2.30099e+06 -2.74104e+06 4.9411e+06 
22 3 0.84819 1.0705 6.81439 0.195841 1.80023 -2.83541e+06 -4.32889e+06 -1.05469e+07 -2.30099e+06 2.74103e+06 4.9411e+06 
23 3 0.84819 3.71691 3.45734 3.2072 1.80024 -2.83542e+06 -4.32888e+06 -1.05469e+07 -2.30099e+06 -2.74103e+06 -4.9411e+06 
24 3 0.84819 3.4642 8.59321 3.2072 1.80023 -2.8354e+06 -4.32888e+06 -1.05469e+07 2.30099e+06 2.74104e+06 -4.9411e+06 
25 3 0.84819 3.4642 8.59321 5.82688 1.80023 -2.8354e+06 -4.32888e+06 -1.05469e+07 2.30098e+06 -2.74103e+06 4.94109e+06 
26 3 0.84819 3.71691 3.45734 5.82688 1.80023 -2.83542e+06 -4.32888e+06 -1.05469e+07 -2.30099e+06 2.74103e+06 4.9411e+06 
27 3 0.84819 1.0705 6.81439 2.81552 1.80023 -2.8354e+06 -4.32888e+06 -1.05469e+07 -2.30099e+06 -2.74103e+06 -4.9411e+06 
28 3 0.84819 1.32321 1.67852 2.81552 1.80023 -2.8354e+06 -4.32888e+06 -1.05469e+07 2.30098e+06 2.74103e+06 -4.94109e+06 
29 4 -2.84819 3.67238 0.942596 1.50568 -24.8149 2.56408e+07 -5.70555e+06 -3.13515e+06 141673 -0.578337 1.22835 
30 4 -2.84819 3.50874 6.07846 1.50568 -24.8149 2.56409e+07 -5.70557e+06 -3.13511e+06 -141665 0.578335 1.22835 
31 4 -2.84819 1.27867 4.19327 4.51704 -24.815 2.56409e+07 -5.70559e+06 -3.13508e+06 -141671 -0.578329 -1.22835 
32 4 -2.84819 1.11504 9.32914 4.51704 -24.8149 2.56408e+07 -5.70555e+06 -3.13515e+06 141674 0.578337 -1.22835 
33 4 -2.84819 1.06341 4.58955 1.50568 -24.724 3.89275e+06 1.05968e+07 2.20937e+06 -4.69606e+06 -1.50247 -1.26197 
34 4 -2.84819 1.3303 9.72542 1.50568 -24.724 3.89275e+06 1.05968e+07 2.20932e+06 4.69606e+06 1.50247 -1.26196 
35 4 -2.84819 3.45711 0.546312 4.51704 -24.724 3.89275e+06 1.05968e+07 2.20932e+06 4.69606e+06 -1.50247 1.26196 
36 4 -2.84819 3.724 5.68218 4.51704 -24.724 3.89277e+06 1.05968e+07 2.20935e+06 -4.69605e+06 1.50248 1.26197 
37 4 -2.84819 1.32321 1.67852 0.195841 -23.2385 -231560 4.63209e+06 1.235e+07 -4.88682e+06 4.0253e+06 -7.17012e+06 
38 4 -2.84819 1.0705 6.81439 0.195841 -23.2385 -231543 4.63211e+06 1.235e+07 4.88683e+06 -4.0253e+06 -7.17014e+06 
39 4 -2.84819 3.71691 3.45734 3.2072 -23.2385 -231512 4.63208e+06 1.235e+07 4.88683e+06 4.0253e+06 7.17014e+06 
40 4 -2.84819 3.4642 8.59321 3.2072 -23.2385 -231564 4.63209e+06 1.235e+07 -4.88682e+06 -4.0253e+06 7.17012e+06 
41 4 -2.84819 3.4642 8.59321 5.82688 -23.2384 -231564 4.6321e+06 1.235e+07 -4.88682e+06 4.0253e+06 -7.17013e+06 
42 4 -2.84819 3.71691 3.45734 5.82688 -23.2385 -231511 4.63209e+06 1.235e+07 4.88682e+06 -4.0253e+06 -7.17014e+06 
43 4 -2.84819 1.0705 6.81439 2.81552 -23.2385 -231542 4.63211e+06 1.235e+07 4.88682e+06 4.0253e+06 7.17014e+06 
44 4 -2.84819 1.32321 1.67852 2.81552 -23.2384 -231559 4.6321e+06 1.235e+07 -4.88681e+06 -4.0253e+06 7.17013e+06 
177 1 2 0 0 6.02273 -19.9573 -8.14755e+06 9.52069e+06 -2.878e+06 -3.52341e+06 -4.98015e+06 -5.62977e+06 
178 1 2 2.39371 5.13587 6.02273 -19.9573 -8.14759e+06 9.52072e+06 -2.87804e+06 3.52341e+06 4.98017e+06 -5.62977e+06 
179 1 2 2.39371 5.13587 9.03409 -19.9573 -8.14759e+06 9.52072e+06 -2.87804e+06 3.52341e+06 -4.98017e+06 5.62977e+06 
180 1 2 0 0 9.03409 -19.9573 -8.14755e+06 9.52069e+06 -2.878e+06 -3.52341e+06 4.98015e+06 5.62977e+06 
181 1 2 4.74256 2.84986 7.52841 -21.9359 3.96494e+06 -5.40087e+06 5.70943e+06 2.67623e+06 -0.217956 -0.456232 
182 1 2 2.43855 7.98573 7.52841 -21.9359 3.96494e+06 -5.40086e+06 5.70945e+06 -2.67624e+06 0.217955 -0.456232 
183 1 2 2.34886 2.286 10.5398 -21.9359 3.96494e+06 -5.40086e+06 5.70944e+06 -2.67624e+06 -0.217956 0.456233 
184 1 2 0.044848 7.42187 10.5398 -21.9359 3.96495e+06 -5.40087e+06 5.70944e+06 2.67624e+06 0.217956 0.456232 
185 2 4 2.04253 0.967084 7.52841 -78.7097 8.36165e+06 1.66065e+07 9.16851e+06 959330 -8.15556 3.85792 
186 2 4 0.351176 6.10295 7.52841 -78.7096 8.36165e+06 1.66065e+07 9.16847e+06 -959294 8.15555 3.85792 
187 2 4 4.43623 4.16878 10.5398 -78.7096 8.36161e+06 1.66065e+07 9.16846e+06 -959310 -8.15554 -3.85792 
188 2 4 2.74488 9.30465 10.5398 -78.7097 8.36165e+06 1.66065e+07 9.16852e+06 959329 8.15556 -3.85792 
189 3 0.84819 3.67238 0.942596 7.52841 2.38769 -1.7624e+07 -87260.9 -944482 363532 1.84901 -1.68578 
190 3 0.84819 3.50874 6.07846 7.52841 2.38769 -1.7624e+07 -87257.3 -944494 -363534 -1.84901 -1.68577 
191 3 0.84819 1.27867 4.19327 10.5398 2.3877 -1.7624e+07 -87252.9 -944508 -363533 1.84902 1.68578 
192 3 0.84819 1.11504 9.32914 10.5398 2.38769 -1.7624e+07 -87261.3 -944480 363532 -1.84901 1.68578 
193 3 0.84819 1.06341 4.58955 7.52841 2.30582 -4.59195e+06 -1.12979e+07 -2.63558e+06 2.70648e+06 2.51686 1.11781 
194 3 0.84819 1.3303 9.72542 7.52841 2.3058 -4.59195e+06 -1.12979e+07 -2.63556e+06 -2.70648e+06 -2.51686 1.11781 
195 3 0.84819 3.45711 0.546312 10.5398 2.3058 -4.59195e+06 -1.12979e+07 -2.63556e+06 -2.70648e+06 2.51686 -1.11781 
196 3 0.84819 3.724 5.68218 10.5398 2.30581 -4.59195e+06 -1.12979e+07 -2.63557e+06 2.70648e+06 -2.51685 -1.11781 
197 3 0.84819 1.32321 1.67852 6.21857 1.80023 -2.83541e+06 -4.32888e+06 -1.05469e+07 2.30099e+06 -2.74104e+06 4.9411e+06 
198 3 0.84819 1.0705 6.81439 6.21857 1.80023 -2.83541e+06 -4.32889e+06 -1.05469e+07 -2.30099e+06 2.74103e+06 4.9411e+06 
199 3 0.84819 3.71691 3.45734 9.22993 1.80024 -2.83542e+06 -4.32888e+06 -1.05469e+07 -2.30099e+06 -2.74103e+06 -4.9411e+06 
200 3 0.84819 3.4642 8.59321 9.22993 1.80023 -2.8354e+06 -4.32888e+06 -1.05469e+07 2.30099e+06 2.74104e+06 -4.9411e+06 
201 3 0.84819 3.4642 8.59321 11.8496 1.80023 -2.8354e+06 -4.32888e+06 -1.05469e+07 2.30098e+06 -2.74103e+06 4.94109e+06 
202 3 0.84819 3.71691 3.45734 11.8496 1.80023 -2.83542e+06 -4.32888e+06 -1.05469e+07 -2.30099e+06 2.74103e+06 4.9411e+06 
203 3 0.84819 1.0705 6.81439 8.83825 1.80023 -2.8354e+06 -4.32888e+06 -1.05469e+07 -2.30099e+06 -2.74103e+06 -4.9411e+06 
204 3 0.84819 1.32321 1.67852 8.83825 1.80023 -2.8354e+06 -4.32888e+06 -1.05469e+07 2.30098e+06 2.74103e+06 -4.94109e+06 
205 4 -2.84819 3.67238 0.942596 7.52841 -24.8149 2.56408e+07 -5.70555e+06 -3.13515e+06 141673 -0.578337 1.22835 
206 4 -2.84819 3.50874 6.07846 7.52841 -24.8149 2.56409e+07 -5.70557e+06 -3.13511e+06 -141665 0.578335 1.22835 
207 4 -2.84819 1.27867 4.19327 10.5398 -24.815 2.56409e+07 -5.70559e+06 -3.13508e+06 -141671 -0.578328 -1.22835 
208 4 -2.84819 1.11504 9.32914 10.5398 -24.8149 2.56408e+07 -5.70555e+06 -3.13515e+06 141674 0.578337 -1.22835 
209 4 -2.84819 1.06341 4.58955 7.52841 -24.724 3.89275e+06 1.05968e+07 2.20937e+06 -4.69606e+06 -1.50247 -1.26197 
210 4 -2.84819 1.3303 9.72542 7.52841 -24.724 3.89275e+06 1.05968e+07 2.20932e+06 4.69606e+06 1.50247 -1.26196 
211 4 -2.84819 3.45711 0.546312 10.5398 -24.724 3.89275e+06 1.05968e+07 2.20932e+06 4.69606e+06 -1.50247 1.26196 
212 4 -2.84819 3.724 5.68218 10.5398 -24.724 3.89277e+06 1.05968e+07 2.20935e+06 -4.69605e+06 1.50248 1.26197 
213 4 -2.84819 1.32321 1.67852 6.21857 -23.2385 -231560 4.63209e+06 1.235e+07 -4.88682e+06 4.0253e+06 -7.17012e+06 
214 4 -2.84819 1.0705 6.81439 6.21857 -23.2385 -231543 4.63211e+06 1.235e+07 4.88683e+06 -4.0253e+06 -7.17014e+06 
215 4 -2.84819 3.71691 3.45734 9.22993 -23.2385 -231512 4.63208e+06 1.235e+07 4.88683e+06 4.0253e+06 7.17014e+06 
216 4 -2.84819 3.4642 8.59321 9.22993 -23.2385 -231564 4.63209e+06 1.235e+07 -4.88682e+06 -4.0253e+06 7.17012e+06 
217 4 -2.84819 3.4642 8.59321 11.8496 -23.2384 -231564 4.6321e+06 1.235e+07 -4.88682e+06 4.0253e+06 -7.17013e+06 
218 4 -2.84819 3.71691 3.45734 11.8496 -23.2385 -231511 4.63209e+06 1.235e+07 4.88682e+06 -4.0253e+06 -7.17014e+06 
219 4 -2.84819 1.0705 6.81439 8.83825 -23.2385 -231542 4.63211e+06 1.235e+07 4.88682e+06 4.0253e+06 7.17014e+06 
220 4 -2.84819 1.32321 1.67852 8.83825 -23.2384 -231559 4.6321e+06 1.235e+07 -4.88681e+06 -4.0253e+06 7.17013e+06 
89 1 2 0 10.2717 0 -19.9573 -8.14755e+06 9.52069e+06 -2.878e+06 -3.52341e+06 -4.98015e+06 -5.62977e+06 
90 1 2 2.39371 15.4076 0 -19.9573 -8.14759e+06 9.52072e+06 -2.87804e+06 3.52341e+06 4.98017e+06 -5.62977e+06 
91 1 2 2.39371 15.4076 3.01136 -19.9573 -8.14759e+06 9.52072e+06 -2.87804e+06 3.52341e+06 -4.98017e+06 5.62977e+06 
92 1 2 0 10.2717 3.01136 -19.9573 -8.14755e+06 9.52069e+06 -2.878e+06 -3.52341e+06 4.98015e+06 5.62977e+06 
93 1 2 4.74256 13.1216 1.50568 -21.9359 3.96494e+06 -5.40087e+06 5.70943e+06 2.67623e+06 -0.217956 -0.456232 
94 1 2 2.43855 18.2575 1.50568 -21.9359 3.96494e+06 -5.40086e+06 5.70945e+06 -2.67624e+06 0.217955 -0.456232 
95 1 2 2.34886 12.5577 4.51704 -21.9359 3.96494e+06 -5.40086e+06 5.70944e+06 -2.67624e+06 -0.217956 0.456233 
96 1 2 0.044848 17.6936 4.51704 -21.9359 3.96495e+06 -5.40087e+06 5.70944e+06 2.67624e+06 0.217956 0.456232 
97 2 4 2.04253 11.2388 1.50568 -78.7097 8.36165e+06 1.66065e+07 9.16851e+06 959330 -8.15556 3.85792 
98 2 4 0.351176 16.3747 1.50568 -78.7096 8.36165e+06 1.66065e+07 9.16847e+06 -959294 8.15555 3.85792 
99 2 4 4.43623 14.4405 4.51704 -78.7096 8.36161e+06 1.66065e+07 9.16846e+06 -959310 -8.15554 -3.85792 
100 2 4 2.74488 19.5764 4.51704 -78.7097 8.36165e+06 1.66065e+07 9.16852e+06 959329 8.15556 -3.85792 
101 3 0.84819 3.67238 11.2143 1.50568 2.38769 -1.7624e+07 -87260.9 -944482 363532 1.84901 -1.68578 
102 3 0.84819 3.50874 16.3502 1.50568 2.38769 -1.7624e+07 -87257.3 -944494 -363534 -1.84901 -1.68577 
103 3 0.84819 1.27867 14.465 4.51704 2.3877 -1.7624e+07 -87252.9 -944508 -363533 1.84902 1.68578 
104 3 0.84819 1.11504 19.6009 4.51704 2.38769 -1.7624e+07 -87261.3 -944480 363532 -1.84901 1.68578 
105 3 0.84819 1.06341 14.8613 1.50568 2.30582 -4.59195e+06 -1.12979e+07 -2.63558e+06 2.70648e+06 2.51686 1.11781 
106 3 0.84819 1.3303 19.9972 1.50568 2.3058 -4.59195e+06 -1.12979e+07 -2.63556e+06 -2.70648e+06 -2.51686 1.11781 
107 3 0.84819 3.45711 10.818 4.51704 2.3058 -4.59195e+06 -1.12979e+07 -2.63556e+06 -2.70648e+06 2.51686 -1.11781 
108 3 0.84819 3.724 15.9539 4.51704 2.30581 -4.59195e+06 -1.12979e+07 -2.63557e+06 2.70648e+06 -2.51685 -1.11781 
109 3 0.84819 1.32321 11.9503 0.195841 1.80023 -2.83541e+06 -4.32888e+06 -1.05469e+07 2.30099e+06 -2.74104e+06 4.9411e+06 
110 3 0.84819 1.0705 17.0861 0.195841 1.80023 -2.83541e+06 -4.32889e+06 -1.05469e+07 -2.30099e+06 2.74103e+06 4.9411e+06 
111 3 0.84819 3.71691 13.7291 3.2072 1.80024 -2.83542e+06 -4.32888e+06 -1.05469e+07 -2.30099e+06 -2.74103e+06 -4.9411e+06 
112 3 0.84819 3.4642 18.8649 3.2072 1.80023 -2.8354e+06 -4.32888e+06 -1.05469e+07 2.30099e+06 2.74104e+06 -4.9411e+06 
113 3 0.84819 3.4642 18.8649 5.82688 1.80023 -2.8354e+06 -4.32888e+06 -1.05469e+07 2.30098e+06 -2.74103e+06 4.94109e+06 
114 3 0.84819 3.71691 13.7291 5.82688 1.80023 -2.83542e+06 -4.32888e+06 -1.05469e+07 -2.30099e+06 2.74103e+06 4.9411e+06 
115 3 0.84819 1.0705 17.0861 2.81552 1.80023 -2.8354e+06 -4.32888e+06 -1.05469e+07 -2.30099e+06 -2.74103e+06 -4.9411e+06 
116 3 0.84819 1.32321 11.9503 2.81552 1.80023 -2.8354e+06 -4.32888e+06 -1.05469e+07 2.30098e+06 2.74103e+06 -4.94109e+06 
117 4 -2.84819 3.67238 11.2143 1.50568 -24.8149 2.56408e+07 -5.70555e+06 -3.13515e+06 141673 -0.578337 1.22835 
118 4 -2.84819 3.50874 16.3502 1.50568 -24.8149 2.56409e+07 -5.70557e+06 -3.13511e+06 -141665 0.578335 1.22835 
119 4 -2.84819 1.27867 14.465 4.51704 -24.815 2.56409e+07 -5.70559e+06 -3.13508e+06 -141671 -0.578329 -1.22835 
120 4 -2.84819 1.11504 19.6009 4.51704 -24.8149 2.56408e+07 -5.70555e+06 -3.13515e+06 141674 0.578337 -1.22835 
121 4 -2.84819 1.06341 14.8613 1.50568 -24.724 3.89275e+06 1.05968e+07 2.20937e+06 -4.69606e+06 -1.50247 -1.26197 
122 4 -2.84819 1.3303 19.9972 1.50568 -24.724 3.89275e+06 1.05968e+07 2.20932e+06 4.69606e+06 1.50247 -1.26196 
123 4 -2.84819 3.45711 10.818 4.51704 -24.724 3.89275e+06 1.05968e+07 2.20932e+06 4.69606e+06 -1.50247 1.26196 
124 4 -2.84819 3.724 15.9539 4.51704 -24.724 3.89277e+06 1.05968e+07 2.20935e+06 -4.69605e+06 1.50248 1.26197 
125 4 -2.84819 1.32321 11.9503 0.195841 -23.2385 -231560 4.63209e+06 1.235e+07 -4.88682e+06 4.0253e+06 -7.17012e+06 
126 4 -2.84819 1.0705 17.0861 0.195841 -23.2385 -231543 4.63211e+06 1.235e+07 4.88683e+06 -4.0253e+06 -7.17014e+06 
127 4 -2.84819 3.71691 13.7291 3.2072 -23.2385 -231512 4.63208e+06 1.235e+07 4.88683e+06 4.0253e+06 7.17014e+06 
128 4 -2.84819 3.4642 18.8649 3.2072 -23.2385 -231564 4.63209e+06 1.235e+07 -4.88682e+06 -4.0253e+06 7.17012e+06 
129 4 -2.84819 3.4642 18.8649 5.82688 -23.2384 -231564 4.6321e+06 1.235e+07 -4.88682e+06 4.0253e+06 -7.17013e+06 
130 4 -2.84819 3.71691 13.7291 5.82688 -23.2385 -231511 4.63209e+06 1.235e+07 4.88682e+06 -4.0253e+06 -7.17014e+06 
131 4 -2.84819 1.0705 17.0861 2.81552 -23.2385 -231542 4.63211e+06 1.235e+07 4.88682e+06 4.0253e+06 7.17014e+06 
132 4 -2.84819 1.32321 11.9503 2.81552 -23.2384 -231559 4.6321e+06 1.235e+07 -4.88681e+06 -4.0253e+06 7.17013e+06 
265 1 2 0 10.2717 6.02273 -19.9573 -8.14755e+06 9.52069e+06 -2.878e+06 -3.52341e+06 -4.98015e+06 -5.62977e+06 
266 1 2 2.39371 15.4076 6.02273 -19.9573 -8.14759e+06 9.52072e+06 -2.87804e+06 3.52341e+06 4.98017e+06 -5.62977e+06 
267 1 2 2.39371 15.4076 9.03409 -19.9573 -8.14759e+06 9.52072e+06 -2.87804e+06 3.52341e+06 -4.98017e+06 5.62977e+06 
268 1 2 0 10.2717 9.03409 -19.9573 -8.14755e+06 9.52069e+06 -2.878e+06 -3.52341e+06 4.98015e+06 5.62977e+06 
269 1 2 4.74256 13.1216 7.52841 -21.9359 3.96494e+06 -5.40087e+06 5.70943e+06 2.67623e+06 -0.217956 -0.456232 
270 1 2 2.43855 18.2575 7.52841 -21.9359 3.96494e+06 -5.40086e+06 5.70945e+06 -2.67624e+06 0.217955 -0.456232 
271 1 2 2.34886 12.5577 10.5398 -21.9359 3.96494e+06 -5.40086e+06 5.70944e+06 -2.67624e+06 -0.217956 0.456233 
272 1 2 0.044848 17.6936 10.5398 -21.9359 3.96495e+06 -5.40087e+06 5.70944e+06 2.67624e+06 0.217956 0.456232 
273 2 4 2.04253 11.2388 7.52841 -78.7097 8.36165e+06 1.66065e+07 9.16851e+06 959330 -8.15556 3.85792 
274 2 4 0.351176 16.3747 7.52841 -78.7096 8.36165e+06 1.66065e+07 9.16847e+06 -959294 8.15555 3.85792 
275 2 4 4.43623 14.4405 10.5398 -78.7096 8.36161e+06 1.66065e+07 9.16846e+06 -959310 -8.15554 -3.85792 
276 2 4 2.74488 19.5764 10.5398 -78.7097 8.36165e+06 1.66065e+07 9.16852e+06 959329 8.15556 -3.85792 
277 3 0.84819 3.67238 11.2143 7.52841 2.38769 -1.7624e+07 -87260.9 -944482 363532 1.84901 -1.68578 
278 3 0.84819 3.50874 16.3502 7.52841 2.38769 -1.7624e+07 -87257.3 -944494 -363534 -1.84901 -1.68577 
279 3 0.84819 1.27867 14.465 10.5398 2.3877 -1.7624e+07 -87252.9 -944508 -363533 1.84902 1.68578 
280 3 0.84819 1.11504 19.6009 10.5398 2.38769 -1.7624e+07 -87261.3 -944480 363532 -1.84901 1.68578 
281 3 0.84819 1.06341 14.8613 7.52841 2.30582 -4.59195e+06 -1.12979e+07 -2.63558e+06 2.70648e+06 2.51686 1.11781 
282 3 0.84819 1.3303 19.9972 7.52841 2.3058 -4.59195e+06 -1.12979e+07 -2.63556e+06 -2.70648e+06 -2.51686 1.11781 
283 3 0.84819 3.45711 10.818 10.5398 2.3058 -4.59195e+06 -1.12979e+07 -2.63556e+06 -2.70648e+06 2.51686 -1.11781 
284 3 0.84819 3.724 15.9539 10.5398 2.30581 -4.59195e+06 -1.12979e+07 -2.63557e+06 2.70648e+06 -2.51685 -1.11781 
285 3 0.84819 1.32321 11.9503 6.21857 1.80023 -2.83541e+06 -4.32888e+06 -1.05469e+07 2.30099e+06 -2.74104e+06 4.9411e+06 
286 3 0.84819 1.0705 17.0861 6.21857 1.80023 -2.83541e+06 -4.32889e+06 -1.05469e+07 -2.30099e+06 2.74103e+06 4.9411e+06 
287 3 0.84819 3.71691 13.7291 9.22993 1.80024 -2.83542e+06 -4.32888e+06 -1.05469e+07 -2.30099e+06 -2.74103e+06 -4.9411e+06 
288 3 0.84819 3.4642 18.8649 9.22993 1.80023 -2.8354e+06 -4.32888e+06 -1.05469e+07 2.30099e+06 2.74104e+06 -4.9411e+06 
289 3 0.84819 3.4642 18.8649 11.8496 1.80023 -2.8354e+06 -4.32888e+06 -1.05469e+07 2.30098e+06 -2.74103e+06 4.94109e+06 
290 3 0.84819 3.71691 13.7291 11.8496 1.80023 -2.83542e+06 -4.32888e+06 -1.05469e+07 -2.30099e+06 2.74103e+06 4.9411e+06 
291 3 0.84819 1.0705 17.0861 8.83825 1.80023 -2.8354e+06 -4.32888e+06 -1.05469e+07 -2.30099e+06 -2.74103e+06 -4.9411e+06 
292 3 0.84819 1.32321 11.9503 8.83825 1.80023 -2.8354e+06 -4.32888e+06 -1.05469e+07 2.30098e+06 2.74103e+06 -4.94109e+06 
293 4 -2.84819 3.67238 11.2143 7.52841 -24.8149 2.56408e+07 -5.70555e+06 -3.13515e+06 141673 -0.578337 1.22835 
294 4 -2.84819 3.50874 16.3502 7.52841 -24.8149 2.56409e+07 -5.70557e+06 -3.13511e+06 -141665 0.578335 1.22835 
295 4 -2.84819 1.27867 14.465 10.5398 -24.815 2.56409e+07 -5.70559e+06 -3.13508e+06 -141671 -0.578328 -1.22835 
296 4 -2.84819 1.11504 19.6009 10.5398 -24.8149 2.56408e+07 -5.70555e+06 -3.13515e+06 141674 0.578337 -1.22835 
297 4 -2.84819 1.06341 14.8613 7.52841 -24.724 3.89275e+06 1.05968e+07 2.20937e+06 -4.69606e+06 -1.50247 -1.26197 
298 4 -2.84819 1.3303 19.9972 7.52841 -24.724 3.89275e+06 1.05968e+07 2.20932e+06 4.69606e+06 1.50247 -1.26196 
299 4 -2.84819 3.45711 10.818 10.5398 -24.724 3.89275e+06 1.05968e+07 2.20932e+06 4.69606e+06 -1.50247 1.26196 
300 4 -2.84819 3.724 15.9539 10.5398 -24.724 3.89277e+06 1.05968e+07 2.20935e+06 -4.69605e+06 1.50248 1.26197 
301 4 -2.84819 1.32321 11.9503 6.21857 -23.2385 -231560 4.63209e+06 1.235e+07 -4.88682e+06 4.0253e+06 -7.17012e+06 
302 4 -2.84819 1.0705 17.0861 6.21857 -23.2385 -231543 4.63211e+06 1.235e+07 4.88683e+06 -4.0253e+06 -7.17014e+06 
303 4 -2.84819 3.71691 13.7291 9.22993 -23.2385 -231512 4.63208e+06 1.235e+07 4.88683e+06 4.0253e+06 7.17014e+06 
304 4 -2.84819 3.4642 18.8649 9.22993 -23.2385 -231564 4.63209e+06 1.235e+07 -4.88682e+06 -4.0253e+06 7.17012e+06 
305 4 -2.84819 3.4642 18.8649 11.8496 -23.2384 -231564 4.6321e+06 1.235e+07 -4.88682e+06 4.0253e+06 -7.17013e+06 
306 4 -2.84819 3.71691 13.7291 11.8496 -23.2385 -231511 4.63209e+06 1.235e+07 4.88682e+06 -4.0253e+06 -7.17014e+06 
307 4 -2.84819 1.0705 17.0861 8.83825 -23.2385 -231542 4.63211e+06 1.235e+07 4.88682e+06 4.0253e+06 7.17014e+06 
308 4 -2.84819 1.32321 11.9503 8.83825 -23.2384 -231559 4.6321e+06 1.235e+07 -4.88681e+06 -4.0253e+06 7.17013e+06 
45 1 2 4.78741 0 0 -19.9573 -8.14755e+06 9.52069e+06 -2.878e+06 -3.52341e+06 -4.98015e+06 -5.62977e+06 
46 1 2 7.18112 5.13587 0 -19.9573 -8.14759e+06 9.52072e+06 -2.87804e+06 3.52341e+06 4.98017e+06 -5.62977e+06 
47 1 2 7.18112 5.13587 3.01136 -19.9573 -8.14759e+06 9.52072e+06 -2.87804e+06 3.52341e+06 -4.98017e+06 5.62977e+06 
48 1 2 4.78741 0 3.01136 -19.9573 -8.14755e+06 9.52069e+06 -2.878e+06 -3.52341e+06 4.98015e+06 5.62977e+06 
49 1 2 9.52997 2.84986 1.50568 -21.9359 3.96494e+06 -5.40087e+06 5.70943e+06 2.67623e+06 -0.217956 -0.456232 
50 1 2 7.22596 7.98573 1.50568 -21.9359 3.96494e+06 -5.40086e+06 5.70945e+06 -2.67624e+06 0.217955 -0.456232 
51 1 2 7.13627 2.286 4.51704 -21.9359 3.96494e+06 -5.40086e+06 5.70944e+06 -2.67624e+06 -0.217956 0.456233 
52 1 2 4.83226 7.42187 4.51704 -21.9359 3.96495e+06 -5.40087e+06 5.70944e+06 2.67624e+06 0.217956 0.456232 
53 2 4 6.82994 0.967084 1.50568 -78.7097 8.36165e+06 1.66065e+07 9.16851e+06 959330 -8.15556 3.85792 
54 2 4 5.13859 6.10295 1.50568 -78.7096 8.36165e+06 1.66065e+07 9.16847e+06 -959294 8.15555 3.85792 
55 2 4 9.22365 4.16878 4.51704 -78.7096 8.36161e+06 1.66065e+07 9.16846e+06 -959310 -8.15554 -3.85792 
56 2 4 7.53229 9.30465 4.51704 -78.7097 8.36165e+06 1.66065e+07 9.16852e+06 959329 8.15556 -3.85792 
57 3 0.84819 8.45979 0.942596 1.50568 2.38769 -1.7624e+07 -87260.9 -944482 363532 1.84901 -1.68578 
58 3 0.84819 8.29615 6.07846 1.50568 2.38769 -1.7624e+07 -87257.3 -944494 -363534 -1.84901 -1.68577 
59 3 0.84819 6.06608 4.19327 4.51704 2.3877 -1.7624e+07 -87252.9 -944508 -363533 1.84902 1.68578 
60 3 0.84819 5.90245 9.32914 4.51704 2.38769 -1.7624e+07 -87261.3 -944480 363532 -1.84901 1.68578 
61 3 0.84819 5.85082 4.58955 1.50568 2.30582 -4.59195e+06 -1.12979e+07 -2.63558e+06 2.70648e+06 2.51686 1.11781 
62 3 0.84819 6.11771 9.72542 1.50568 2.3058 -4.59195e+06 -1.12979e+07 -2.63556e+06 -2.70648e+06 -2.51686 1.11781 
63 3 0.84819 8.24452 0.546312 4.51704 2.3058 -4.59195e+06 -1.12979e+07 -2.63556e+06 -2.70648e+06 2.51686 -1.11781 
64 3 0.84819 8.51141 5.68218 4.51704 2.30581 -4.59195e+06 -1.12979e+07 -2.63557e+06 2.70648e+06 -2.51685 -1.11781 
65 3 0.84819 6.11062 1.67852 0.195841 1.80023 -2.83541e+06 -4.32888e+06 -1.05469e+07 2.30099e+06 -2.74104e+06 4.9411e+06 
66 3 0.84819 5.85791 6.81439 0.195841 1.80023 -2.83541e+06 -4.32889e+06 -1.05469e+07 -2.30099e+06 2.74103e+06 4.9411e+06 
67 3 0.84819 8.50432 3.45734 3.2072 1.80024 -2.83542e+06 -4.32888e+06 -1.05469e+07 -2.30099e+06 -2.74103e+06 -4.9411e+06 
68 3 0.84819 8.25161 8.59321 3.2072 1.80023 -2.8354e+06 -4.32888e+06 -1.05469e+07 2.30099e+06 2.74104e+06 -4.9411e+06 
69 3 0.84819 8.25161 8.59321 5.82688 1.80023 -2.8354e+06 -4.32888e+06 -1.05469e+07 2.30098e+06 -2.74103e+06 4.94109e+06 
70 3 0.84819 8.50432 3.45734 5.82688 1.80023 -2.83542e+06 -4.32888e+06 -1.05469e+07 -2.30099e+06 2.74103e+06 4.9411e+06 
71 3 0.84819 5.85791 6.81439 2.81552 1.80023 -2.8354e+06 -4.32888e+06 -1.05469e+07 -2.30099e+06 -2.74103e+06 -4.9411e+06 
72 3 0.84819 6.11062 1.67852 2.81552 1.80023 -2.8354e+06 -4.32888e+06 -1.05469e+07 2.30098e+06 2.74103e+06 -4.94109e+06 
73 4 -2.84819 8.45979 0.942596 1.50568 -24.8149 2.56408e+07 -5.70555e+06 -3.13515e+06 141673 -0.578337 1.22835 
74 4 -2.84819 8.29615 6.07846 1.50568 -24.8149 2.56409e+07 -5.70557e+06 -3.13511e+06 -141665 0.578335 1.22835 
75 4 -2.84819 6.06608 4.19327 4.51704 -24.815 2.56409e+07 -5.70559e+06 -3.13508e+06 -141671 -0.578328 -1.22835 
76 4 -2.84819 5.90245 9.32914 4.51704 -24.8149 2.56408e+07 -5.70555e+06 -3.13515e+06 141674 0.578337 -1.22835 
77 4 -2.84819 5.85082 4.58955 1.50568 -24.724 3.89275e+06 1.05968e+07 2.20937e+06 -4.69606e+06 -1.50247 -1.26197 
78 4 -2.84819 6.11771 9.72542 1.50568 -24.724 3.89275e+06 1.05968e+07 2.20932e+06 4.69606e+06 1.50247 -1.26196 
79 4 -2.84819 8.24452 0.546312 4.51704 -24.724 3.89275e+06 1.05968e+07 2.20932e+06 4.69606e+06 -1.50247 1.26196 
80 4 -2.84819 8.51141 5.68218 4.51704 -24.724 3.89277e+06 1.05968e+07 2.20935e+06 -4.69605e+06 1.50248 1.26197 
81 4 -2.84819 6.11062 1.67852 0.195841 -23.2385 -231560 4.63209e+06 1.235e+07 -4.88682e+06 4.0253e+06 -7.17012e+06 
82 4 -2.84819 5.85791 6.81439 0.195841 -23.2385 -231543 4.63211e+06 1.235e+07 4.88683e+06 -4.0253e+06 -7.17014e+06 
83 4 -2.84819 8.50432 3.45734 3.2072 -23.2385 -231512 4.63208e+06 1.235e+07 4.88683e+06 4.0253e+06 7.17014e+06 
84 4 -2.84819 8.25161 8.59321 3.2072 -23.2385 -231564 4.63209e+06 1.235e+07 -4.88682e+06 -4.0253e+06 7.17012e+06 
85 4 -2.84819 8.25161 8.59321 5.82688 -23.2384 -231564 4.6321e+06 1.235e+07 -4.88682e+06 4.0253e+06 -7.17013e+06 
86 4 -2.84819 8.50432 3.45734 5.82688 -23.2385 -231511 4.63209e+06 1.235e+07 4.88682e+06 -4.0253e+06 -7.17014e+06 
87 4 -2.84819 5.85791 6.81439 2.81552 -23.2385 -231542 4.63211e+06 1.235e+07 4.88682e+06 4.0253e+06 7.17014e+06 
88 4 -2.84819 6.11062 1.67852 2.81552 -23.2384 -231559 4.6321e+06 1.235e+07 -4.88681e+06 -4.0253e+06 7.17013e+06 
221 1 2 4.78741 0 6.02273 -19.9573 -8.14755e+06 9.52069e+06 -2.878e+06 -3.52341e+06 -4.98015e+06 -5.62977e+06 
222 1 2 7.18112 5.13587 6.02273 -19.9573 -8.14759e+06 9.52072e+06 -2.87804e+06 3.52341e+06 4.98017e+06 -5.62977e+06 
223 1 2 7.18112 5.13587 9.03409 -19.9573 -8.14759e+06 9.52072e+06 -2.87804e+06 3.52341e+06 -4.98017e+06 5.62977e+06 
224 1 2 4.78741 0 9.03409 -19.9573 -8.14755e+06 9.52069e+06 -2.878e+06 -3.52341e+06 4.98015e+06 5.62977e+06 
225 1 2 9.52997 2.84986 7.52841 -21.9359 3.96494e+06 -5.40087e+06 5.70943e+06 2.67623e+06 -0.217956 -0.456232 
226 1 2 7.22596 7.98573 7.52841 -21.9359 3.96494e+06 -5.40086e+06 5.70945e+06 -2.67624e+06 0.217955 -0.456232 
227 1 2 7.13627 2.286 10.5398 -21.9359 3.96494e+06 -5.40086e+06 5.70944e+06 -2.67624e+06 -0.217956 0.456233 
228 1 2 4.83226 7.42187 10.5398 -21.9359 3.96495e+06 -5.40087e+06 5.70944e+06 2.67624e+06 0.217956 0.456232 
229 2 4 6.82994 0.967084 7.52841 -78.7097 8.36165e+06 1.66065e+07 9.16851e+06 959330 -8.15556 3.85792 
230 2 4 5.13859 6.10295 7.52841 -78.7096 8.36165e+06 1.66065e+07 9.16847e+06 -959294 8.15555 3.85792 
231 2 4 9.22365 4.16878 10.5398 -78.7096 8.36161e+06 1.66065e+07 9.16846e+06 -959310 -8.15554 -3.85792 
232 2 4 7.53229 9.30465 10.5398 -78.7097 8.36165e+06 1.66065e+07 9.16852e+06 959329 8.15556 -3.85792 
233 3 0.84819 8.45979 0.942596 7.52841 2.38769 -1.7624e+07 -87260.9 -944482 363532 1.84901 -1.68578 
234 3 0.84819 8.29615 6.07846 7.52841 2.38769 -1.7624e+07 -87257.3 -944494 -363534 -1.84901 -1.68577 
235 3 0.84819 6.06608 4.19327 10.5398 2.3877 -1.7624e+07 -87252.9 -944508 -363533 1.84902 1.68578 
236 3 0.84819 5.90245 9.32914 10.5398 2.38769 -1.7624e+07 -87261.3 -944480 363532 -1.84901 1.68578 
237 3 0.84819 5.85082 4.58955 7.52841 2.30582 -4.59195e+06 -1.12979e+07 -2.63558e+06 2.70648e+06 2.51686 1.11781 
238 3 0.84819 6.11771 9.72542 7.52841 2.3058 -4.59195e+06 -1.12979e+07 -2.63556e+06 -2.70648e+06 -2.51686 1.11781 
239 3 0.84819 8.24452 0.546312 10.5398 2.3058 -4.59195e+06 -1.12979e+07 -2.63556e+06 -2.70648e+06 2.51686 -1.11781 
240 3 0.84819 8.51141 5.68218 10.5398 2.30581 -4.59195e+06 -1.12979e+07 -2.63557e+06 2.70648e+06 -2.51685 -1.11781 
241 3 0.84819 6.11062 1.67852 6.21857 1.80023 -2.83541e+06 -4.32888e+06 -1.05469e+07 2.30099e+06 -2.74104e+06 4.9411e+06 
242 3 0.84819 5.85791 6.81439 6.21857 1.80023 -2.83541e+06 -4.32889e+06 -1.05469e+07 -2.30099e+06 2.74103e+06 4.9411e+06 
243 3 0.84819 8.50432 3.45734 9.22993 1.80024 -2.83542e+06 -4.32888e+06 -1.05469e+07 -2.30099e+06 -2.74103e+06 -4.9411e+06 
244 3 0.84819 8.25161 8.59321 9.22993 1.80023 -2.8354e+06 -4.32888e+06 -1.05469e+07 2.30099e+06 2.74104e+06 -4.9411e+06 
245 3 0.84819 8.25161 8.59321 11.8496 1.80023 -2.8354e+06 -4.32888e+06 -1.05469e+07 2.30098e+06 -2.74103e+06 4.94109e+06 
246 3 0.84819 8.50432 3.45734 11.8496 1.80023 -2.83542e+06 -4.32888e+06 -1.05469e+07 -2.30099e+06 2.74103e+06 4.9411e+06 
247 3 0.84819 5.85791 6.81439 8.83825 1.80023 -2.8354e+06 -4.32888e+06 -1.05469e+07 -2.30099e+06 -2.74103e+06 -4.9411e+06 
248 3 0.84819 6.11062 1.67852 8.83825 1.80023 -2.8354e+06 -4.32888e+06 -1.05469e+07 2.30098e+06 2.74103e+06 -4.94109e+06 
249 4 -2.84819 8.45979 0.942596 7.52841 -24.8149 2.56408e+07 -5.70555e+06 -3.13515e+06 141673 -0.578337 1.22835 
250 4 -2.84819 8.29615 6.07846 7.52841 -24.8149 2.56409e+07 -5.70557e+06 -3.13511e+06 -141665 0.578335 1.22835 
251 4 -2.84819 6.06608 4.19327 10.5398 -24.815 2.56409e+07 -5.70559e+06 -3.13508e+06 -141671 -0.578328 -1.22835 
252 4 -2.84819 5.90245 9.32914 10.5398 -24.8149 2.56408e+07 -5.70555e+06 -3.13515e+06 141674 0.578337 -1.22835 
253 4 -2.84819 5.85082 4.58955 7.52841 -24.724 3.89275e+06 1.05968e+07 2.20937e+06 -4.69606e+06 -1.50247 -1.26197 
254 4 -2.84819 6.11771 9.72542 7.52841 -24.724 3.89275e+06 1.05968e+07 2.20932e+06 4.69606e+06 1.50247 -1.26196 
255 4 -2.84819 8.24452 0.546312 10.5398 -24.724 3.89275e+06 1.05968e+07 2.20932e+06 4.69606e+06 -1.50247 1.26196 
256 4 -2.84819 8.51141 5.68218 10.5398 -24.724 3.89277e+06 1.05968e+07 2.20935e+06 -4.69605e+06 1.50248 1.26197 
257 4 -2.84819 6.11062 1.67852 6.21857 -23.2385 -231560 4.63209e+06 1.235e+07 -4.88682e+06 4.0253e+06 -7.17012e+06 
258 4 -2.84819 5.85791 6.81439 6.21857 -23.2385 -231543 4.63211e+06 1.235e+07 4.88683e+06 -4.0253e+06 -7.17014e+06 
259 4 -2.84819 8.50432 3.45734 9.22993 -23.2385 -231512 4.63208e+06 1.235e+07 4.88683e+06 4.0253e+06 7.17014e+06 
260 4 -2.84819 8.25161 8.59321 9.22993 -23.2385 -231564 4.63209e+06 1.235e+07 -4.88682e+06 -4.0253e+06 7.17012e+06 
261 4 -2.84819 8.25161 8.59321 11.8496 -23.2384 -231564 4.6321e+06 1.235e+07 -4.88682e+06 4.0253e+06 -7.17013e+06 
262 4 -2.84819 8.50432 3.45734 11.8496 -23.2385 -231511 4.63209e+06 1.235e+07 4.88682e+06 -4.0253e+06 -7.17014e+06 
263 4 -2.84819 5.85791 6.81439 8.83825 -23.2385 -231542 4.63211e+06 1.235e+07 4.88682e+06 4.0253e+06 7.17014e+06 
264 4 -2.84819 6.11062 1.67852 8.83825 -23.2384 -231559 4.6321e+06 1.235e+07 -4.88681e+06 -4.0253e+06 7.17013e+06 
133 1 2 4.78741 10.2717 0 -19.9573 -8.14755e+06 9.52069e+06 -2.878e+06 -3.52341e+06 -4.98015e+06 -5.62977e+06 