Position data for File X[100] Y[010] Z[001]
 
 44 atoms 
 
 4 atom types
 0.000000 4.787411 xlo xhi
 0.000000 10.271733 ylo yhi
 0.000000 6.022726 zlo zhi
 
 Atoms 

1 	 1 	 2.000000 	 0.000000 	 0.000000 	 0.000000
2 	 1 	 2.000000 	 2.393705 	 5.135866 	 0.000000
3 	 1 	 2.000000 	 2.393705 	 5.135866 	 3.011363
4 	 1 	 2.000000 	 0.000000 	 0.000000 	 3.011363
5 	 1 	 2.000000 	 4.742563 	 2.849862 	 1.505681
6 	 1 	 2.000000 	 2.438554 	 7.985728 	 1.505681
7 	 1 	 2.000000 	 2.348857 	 2.286005 	 4.517044
8 	 1 	 2.000000 	 0.044848 	 7.421871 	 4.517044
9 	 2 	 4.000000 	 2.042530 	 0.967084 	 1.505681
10 	 2 	 4.000000 	 0.351176 	 6.102950 	 1.505681
11 	 2 	 4.000000 	 4.436235 	 4.168783 	 4.517044
12 	 2 	 4.000000 	 2.744881 	 9.304649 	 4.517044
13 	 3 	 0.848190 	 3.672375 	 0.942596 	 1.505681
14 	 3 	 0.848190 	 3.508741 	 6.078462 	 1.505681
15 	 3 	 0.848190 	 1.278670 	 4.193271 	 4.517044
16 	 3 	 0.848190 	 1.115036 	 9.329137 	 4.517044
17 	 3 	 0.848190 	 1.063408 	 4.589554 	 1.505681
18 	 3 	 0.848190 	 1.330297 	 9.725421 	 1.505681
19 	 3 	 0.848190 	 3.457114 	 0.546312 	 4.517044
20 	 3 	 0.848190 	 3.724003 	 5.682179 	 4.517044
21 	 3 	 0.848190 	 1.323207 	 1.678524 	 0.195841
22 	 3 	 0.848190 	 1.070499 	 6.814391 	 0.195841
23 	 3 	 0.848190 	 3.716912 	 3.457342 	 3.207204
24 	 3 	 0.848190 	 3.464204 	 8.593209 	 3.207204
25 	 3 	 0.848190 	 3.464204 	 8.593209 	 5.826885
26 	 3 	 0.848190 	 3.716912 	 3.457342 	 5.826885
27 	 3 	 0.848190 	 1.070499 	 6.814391 	 2.815522
28 	 3 	 0.848190 	 1.323207 	 1.678524 	 2.815522
29 	 4 	 -2.848190 	 3.672375 	 0.942596 	 1.505681
30 	 4 	 -2.848190 	 3.508741 	 6.078462 	 1.505681
31 	 4 	 -2.848190 	 1.278670 	 4.193271 	 4.517044
32 	 4 	 -2.848190 	 1.115036 	 9.329137 	 4.517044
33 	 4 	 -2.848190 	 1.063408 	 4.589554 	 1.505681
34 	 4 	 -2.848190 	 1.330297 	 9.725421 	 1.505681
35 	 4 	 -2.848190 	 3.457114 	 0.546312 	 4.517044
36 	 4 	 -2.848190 	 3.724003 	 5.682179 	 4.517044
37 	 4 	 -2.848190 	 1.323207 	 1.678524 	 0.195841
38 	 4 	 -2.848190 	 1.070499 	 6.814391 	 0.195841
39 	 4 	 -2.848190 	 3.716912 	 3.457342 	 3.207204
40 	 4 	 -2.848190 	 3.464204 	 8.593209 	 3.207204
41 	 4 	 -2.848190 	 3.464204 	 8.593209 	 5.826885
42 	 4 	 -2.848190 	 3.716912 	 3.457342 	 5.826885
43 	 4 	 -2.848190 	 1.070499 	 6.814391 	 2.815522
44 	 4 	 -2.848190 	 1.323207 	 1.678524 	 2.815522
